version 3
run Sched1-0-20231129-14:48:40-18120
attr configname Sched1
attr datetime 20231129-14:48:40
attr datetimef 20231129-144840
attr experiment Sched1
attr inifile omnetpp.ini
attr iterationvars ""
attr iterationvarsd ""
attr iterationvarsf ""
attr measurement ""
attr network Network
attr processid 18120
attr repetition 0
attr replication #0
attr resultdir results
attr runnumber 0
attr seedset 0
config description "wrr config"
config *.nrHP 1
config *.nrMP 2
config *.nrLP 1
config Network.sources[0].sendIaTime "6 ms"
config Network.sources[1].sendIaTime "6 ms"
config Network.sources[2].sendIaTime "6 ms"
config Network.sources[3].sendIaTime "6 ms"
config Network.scheduler.algorithm "\"wrr\""
config **.scheduler.currPriorityHq.result-recording-modes +histogram
config **.scheduler.currPriorityMq.result-recording-modes +histogram
config **.scheduler.currPriorityLq.result-recording-modes +histogram
config network Network
config sim-time-limit 100h
config cpu-time-limit 300s

vector 0 Network.sink currPriorityHq:vector ETV
attr interpolationmode none
attr recordingmode vector
attr source prioritySignalHq
attr title "last time served"
vector 1 Network.sink currPriorityMq:vector ETV
attr interpolationmode none
attr recordingmode vector
attr source prioritySignalMq
attr title "last time served"
vector 2 Network.sink currPriorityLq:vector ETV
attr interpolationmode none
attr recordingmode vector
attr source prioritySignalLq
attr title "last time served"
0	19	1	1
0	41	5	0.224752972605
0	78	11	0.68541418378
0	166	23	1.411629858564
0	285	42	0.522156178994
0	302	44	2.080044046204
0	318	46	1.610576068748
0	331	48	3.488022538354
0	344	50	2.732533714823
0	392	58	0.007607734191
0	462	71	0.762254438721
0	516	80	0.078241989366
0	530	82	1.322995532738
0	581	90	1.671629319396
0	693	106	0.305106451474
0	714	108	1.433438287721
0	733	110	3.319626872514
0	747	112	2.969002008454
0	763	114	3.460350416005
0	779	116	2.529008120157
0	852	128	0.555527874872
0	868	130	1.928160520221
0	881	132	3.555468777423
0	1013	151	1.554186670695
0	1041	155	0.487619909529
0	1057	157	1.841809260593
0	1094	163	1.49485078048
0	1107	165	2.439369507926
0	1308	196	1.278767406467
0	1375	206	0.956777460168
0	1388	208	2.350568808314
0	1500	228	0.909038574248
0	1534	232	1.309357254402
0	1550	234	1.31489580862
0	1704	258	1.965475071548
0	1786	270	1.946031936505
0	1799	272	3.425409042468
0	1887	286	1.52987347041
0	1972	296	0.482178641488
0	2024	304	1.686373789653
0	2040	306	1.644293360242
0	2167	326	1.993434293953
0	2204	332	1.155786512756
0	2226	336	1.577510146779
0	2365	358	0.519470647317
0	2447	372	1.710487947418
0	2472	376	1.535691182015
0	2503	380	0.96448455424
0	2531	384	1.950619764674
0	2559	388	0.163898371711
0	2574	390	0.010335076492
0	2633	398	1.534413884558
0	2646	400	0.174647464114
0	2665	402	1.301203593427
0	2681	404	2.649921002458
0	2694	406	2.524576208985
0	2710	408	1.902408126341
0	2741	412	1.08709621179
0	2786	418	0.751998559832
0	2869	432	1.140194603677
0	2936	442	1.294809136116
0	2951	444	2.665518122514
0	2965	446	2.059444186851
0	2978	448	0.258668480515
0	3048	460	1.22027177005
0	3061	462	2.990574292741
0	3071	464	3.92662084187
0	3087	466	1.667113278526
0	3127	472	1.931314734992
0	3196	484	1.919395761836
0	3234	488	0.868109991444
0	3259	492	1.242315560358
0	3314	500	1.560310337484
0	3324	502	3.459703741531
0	3385	512	1.840240316584
0	3398	514	1.16272339347
0	3447	522	1.306933209333
0	3478	526	0.890146609414
0	3506	528	1.551311360809
0	3522	530	2.364334316054
0	3538	532	0.628750252183
0	3650	550	1.321484521742
0	3689	556	1.492591573172
0	3856	584	0.217794245211
0	3871	586	0.785277008124
0	3894	588	1.372129567613
0	3907	590	2.135937276715
0	3929	594	1.078064624229
0	3953	598	1.467990705083
0	3981	602	1.422523287266
0	4003	604	1.661477375726
0	4016	606	3.126551635755
0	4032	608	4.767865858263
0	4048	610	6.419431685567
0	4058	612	5.000046293728
0	4116	621	1.228025726539
0	4143	625	0.536171401285
0	4192	633	1.710940368041
0	4220	637	1.803555976535
0	4296	649	0.18451588183
0	4309	651	0.350886470944
0	4328	653	1.465310273597
0	4341	655	3.340106961936
0	4351	657	3.777998492653
0	4415	667	0.976618767804
0	4452	673	1.651607196902
0	4480	677	1.251401157894
0	4496	679	3.251069046523
0	4559	689	0.886141601238
0	4672	707	0.567033583678
0	4688	709	0.308457474549
0	4827	729	1.365884226055
0	4843	731	1.414588118197
0	4892	739	1.166508395386
0	4929	743	0.79536533898
0	4954	747	1.063143824493
0	5035	757	0.051563406856
0	5097	767	1.805505320334
0	5113	769	2.33431676448
0	5126	771	3.811665264929
0	5163	777	1.511766468022
0	5185	779	3.231640006155
0	5302	797	1.620661601218
0	5448	821	0.684835027839
0	5464	823	0.208455827478
0	5579	843	0.65492996437
0	5643	853	1.022177385963
0	5656	855	0.94165756323
0	5734	867	1.773067705338
0	5751	869	1.213852833119
0	5761	871	2.2518482662
0	5807	879	1.15543468725
0	5976	905	1.944278129764
0	5995	907	3.172796706107
0	6011	909	3.648728436006
0	6021	911	5.030918253691
0	6067	919	1.139576207038
0	6119	929	1.807810044911
0	6221	942	0.585484561227
0	6234	944	0.224470094491
0	6283	952	0.465582941716
0	6356	962	1.632357993754
0	6423	972	1.654563309709
0	6490	982	1.03684437045
0	6509	984	2.19103706396
0	6543	988	0.813061833837
0	6574	992	0.35156268318
0	6662	1004	0.862509137324
0	6672	1006	2.511341743645
0	6715	1012	1.347261520074
0	6748	1018	0.485117796554
0	6774	1020	0.68316731484
0	6823	1026	1.368603438661
0	6923	1042	1.813911785961
0	6942	1044	1.615204034965
0	6973	1048	0.445199084194
0	6998	1052	0.575748137198
0	7014	1054	2.359731158702
0	7069	1062	1.174640645042
0	7115	1068	0.311868370329
0	7155	1072	1.319714373109
0	7237	1086	1.260274792553
0	7250	1088	2.740572825872
0	7263	1090	1.058947567426
0	7318	1098	1.33117571697
0	7340	1102	1.997222238021
0	7356	1104	0.151380966438
0	7393	1110	0.94356107433
0	7457	1118	0.460861097093
0	7473	1120	2.401974478704
0	7522	1128	0.852637741945
0	7634	1146	0.414186405233
0	7685	1156	0.099770534502
0	7879	1186	0.798776592431
0	8015	1206	1.636205356337
0	8057	1212	0.794532094823
0	8140	1224	0.576766971191
0	8159	1226	2.37496344567
0	8190	1230	1.941443326035
0	8245	1236	1.645390330473
0	8264	1238	0.813581803841
0	8304	1244	1.032025626106
0	8464	1272	1.190345650407
0	8486	1274	0.436178085482
0	8550	1284	0.724211686964
0	8578	1288	1.848935520064
0	8612	1294	1.819335665706
0	8643	1298	1.44907022751
0	8665	1302	1.317986899245
0	8699	1306	1.968026163656
0	8763	1316	1.59330833756
0	8850	1330	0.054351464577
0	8921	1342	1.931041732032
0	8955	1348	0.764102070984
0	9046	1362	1.121859070858
0	9071	1366	1.087561658631
0	9084	1368	1.492662364497
0	9097	1370	0.832655988489
0	9143	1378	1.810041608407
0	9159	1380	3.449271393627
0	9232	1392	0.535484887545
0	9269	1396	1.72271073771
0	9309	1402	0.883938297723
0	9343	1406	1.304638796461
0	9359	1408	0.702649664218
0	9381	1412	0.51502437123
0	9424	1418	1.652065488137
0	9458	1424	1.621371596702
0	9561	1440	0.719901216914
0	9583	1444	1.11297333861
0	9632	1452	1.704894082289
0	9651	1454	1.626294117319
0	9661	1456	2.634536043395
0	9683	1458	1.074552633831
0	9693	1460	2.23008170126
0	9727	1464	0.670250099479
0	9842	1484	1.31835359718
0	9861	1486	1.522235579532
0	9955	1500	1.897974935152
0	9971	1502	0.815861255567
0	10053	1516	1.677980968218
0	10069	1518	0.876794906838
0	10082	1520	2.715511189777
0	10125	1526	0.383447546574
0	10192	1538	0.486572064931
0	10208	1540	0.731268457784
0	10221	1542	0.328979269028
0	10318	1556	1.127003346363
0	10352	1562	1.283731797484
0	10368	1564	1.907828767664
0	10402	1570	1.125085577778
0	10451	1576	0.358522976339
0	10467	1578	0.364959234867
0	10480	1580	2.1807485968
0	10502	1584	0.132667353894
0	10539	1588	1.995672664513
0	10555	1590	1.197890505888
0	10574	1592	0.509362695636
0	10608	1596	0.317876659162
0	10702	1610	0.120135076078
0	10720	1612	0.067086926382
0	10767	1620	1.379420908387
0	10789	1622	0.424772650125
0	10826	1628	0.173705861199
0	10860	1634	0.842533587246
0	10978	1654	1.098640605689
0	11006	1658	0.82090173092
0	11022	1660	0.382424530435
0	11038	1662	1.768613844378
0	11063	1666	1.077307305752
0	11091	1670	0.674087503617
0	11139	1678	1.569921085535
0	11156	1680	2.019165593229
0	11214	1690	1.49847688357
0	11292	1702	0.771550142495
0	11363	1714	0.447235239313
0	11400	1720	1.770025066329
0	11437	1726	0.920331925203
0	11453	1728	0.889685128299
0	11463	1730	2.626121723539
0	11560	1744	1.48801695541
0	11578	1746	1.34771943937
0	11589	1748	2.298257878795
0	11611	1752	1.09172702116
0	11648	1758	1.624852172738
0	11669	1760	1.993657141292
0	11698	1764	0.77596497627
0	11741	1770	0.882535869814
0	11841	1784	0.368227504863
0	11929	1798	0.667863298347
0	12170	1836	1.492402586015
0	12210	1842	1.477028136045
0	12228	1844	0.076816376946
0	12254	1848	0.418243339798
0	12282	1852	1.948039872562
0	12418	1872	0.809131825186
0	12563	1898	1.75647019982
0	12681	1920	1.321579331582
0	12694	1922	1.414963283291
0	12728	1924	0.962657357886
0	12744	1926	2.574555727015
0	12760	1928	3.688764427627
0	12773	1930	3.877034406692
0	12843	1940	1.585535467109
0	12934	1956	1.048257002243
0	12971	1962	1.607078358407
0	13047	1974	0.264381463906
0	13060	1976	1.006994549551
0	13100	1982	0.591008199343
0	13116	1984	2.537179875339
0	13129	1986	3.923268997904
0	13142	1988	5.355868578898
0	13152	1990	3.223603515161
0	13167	1992	0.003124052959
0	13192	1994	0.344197948353
0	13269	2006	0.565458211011
0	13297	2010	0.900933161821
0	13421	2030	0.386114145703
0	13458	2034	1.323038690089
0	13513	2042	1.817346726137
0	13531	2044	0.76077566481
0	13560	2048	1.943127472039
0	13624	2058	1.573571234233
0	13682	2066	1.798304335241
0	13698	2068	0.67937266596
0	13759	2076	1.170318924256
0	13784	2080	0.629193020898
0	13826	2086	0.055293799401
0	13843	2088	1.401102617672
0	13913	2100	1.289120058107
0	14007	2116	0.68051971198
0	14026	2118	1.411992662112
0	14039	2120	3.296144030956
0	14097	2130	1.979453389912
0	14136	2136	0.330344674613
0	14153	2138	0.126735669628
0	14177	2140	1.591709176019
0	14211	2142	2.090189493601
0	14228	2144	3.938622762796
0	14247	2146	4.090989989312
0	14257	2148	3.323635323672
0	14330	2160	0.795615445011
0	14348	2162	1.4597823328
0	14361	2164	0.055573614805
0	14408	2170	1.547939372784
0	14472	2178	1.205603409424
0	14551	2192	1.643200725169
0	14567	2194	2.35870755719
0	14726	2218	0.138709048624
0	14746	2220	0.189808220746
0	14759	2222	1.440643073714
0	14784	2224	0.420086380988
0	14923	2246	1.232637978038
0	14960	2252	1.60458928439
0	14973	2254	1.216223254464
0	15031	2264	1.478283152045
0	15046	2266	0.258550654213
0	15144	2282	0.232400813165
0	15184	2286	0.902210461278
0	15326	2310	1.85071264049
0	15398	2322	0.029071380711
0	15412	2324	1.625289577489
0	15452	2332	0.20745944984
0	15498	2340	1.267263711645
0	15525	2342	1.690731252007
0	15548	2346	1.046298995915
0	15599	2354	1.377781232583
0	15619	2356	2.083582184928
0	15646	2360	1.996770516334
0	15663	2362	0.541232679109
0	15688	2366	1.201016694534
0	15745	2376	0.097502815018
0	15768	2378	1.449226413782
0	15781	2380	2.428883881024
0	15796	2382	2.252737063788
0	15813	2384	2.550236448548
0	15826	2386	4.08013764199
0	15845	2388	5.856661088171
0	15858	2390	4.539865087145
0	15874	2392	5.85670114331
0	15926	2400	1.246539638833
0	15957	2406	1.581692126434
0	16069	2422	1.402483002913
0	16094	2426	1.439639637225
0	16110	2428	0.291076972782
0	16156	2436	0.963395911349
0	16211	2444	1.556072692663
0	16235	2448	0.055429462544
0	16300	2458	1.238229567328
0	16328	2462	1.575628309083
0	16353	2464	1.982658053196
0	16372	2466	3.267068833345
0	16388	2468	2.935267435958
0	16401	2470	2.185620057626
0	16444	2476	0.412880074069
0	16466	2478	2.409603354314
0	16491	2480	3.305759692531
0	16510	2482	4.906128869085
0	16520	2484	6.512149758024
0	16533	2486	6.67028546277
0	16600	2496	0.505939352877
0	16649	2504	1.974242314556
0	16680	2508	1.121501556876
0	16693	2510	2.9649377671
0	16715	2512	1.048476043845
0	16728	2514	0.96907398907
0	16783	2522	0.527490717413
0	16805	2524	1.388140172635
0	16839	2530	0.761459342724
0	16879	2536	1.429235177052
0	16901	2540	0.294139848393
0	16926	2544	1.131127110212
0	16948	2546	0.325382646602
0	17033	2560	1.132790908608
0	17073	2566	0.218324792346
0	17160	2580	1.230561738286
0	17174	2582	2.323419179623
0	17192	2584	1.655108449892
0	17281	2598	0.247572131306
0	17330	2604	0.962126427651
0	17354	2608	0.89975615352
0	17398	2616	0.318440063975
0	17417	2618	1.087223154003
0	17442	2622	0.522923542995
0	17461	2624	0.153371790447
0	17489	2628	0.60032296658
0	17505	2630	0.741510159223
0	17524	2632	0.616318474708
0	17671	2656	1.668900536074
0	17688	2658	1.134479839656
0	17802	2678	1.232075573395
0	17834	2682	1.738989254574
0	17850	2684	0.169731719224
0	17869	2686	1.035860618916
0	17882	2688	2.502374444846
0	17895	2690	0.365296913317
0	17962	2702	0.270392127292
0	17993	2706	1.19114183989
0	18080	2718	0.02253954718
0	18136	2728	1.911607030783
0	18155	2730	1.468543947553
0	18165	2732	2.311606014751
0	18213	2738	0.565829781233
0	18224	2740	2.214476691297
0	18236	2742	0.087228062401
0	18256	2744	1.538596174153
0	18268	2746	2.930047473812
0	18327	2756	0.98275363084
0	18343	2758	0.787744596008
0	18514	2785	0.863954128619
0	18586	2796	1.341970024618
0	18638	2804	1.230888883227
0	18651	2806	2.967652815514
0	18666	2808	2.476774448588
0	18680	2810	2.046335073493
0	18693	2812	3.415952076085
0	18709	2814	0.144979133096
0	18791	2826	1.855440508493
0	18855	2836	1.767254137011
0	18871	2838	1.20376843918
0	18920	2846	1.864629995874
0	19064	2868	1.094435993539
0	19075	2870	2.031449528041
0	19088	2872	1.969397218087
0	19119	2878	0.726970252672
0	19132	2880	1.537762329365
0	19147	2882	0.050518510691
0	19164	2884	0.6566863258
0	19203	2890	0.095570062926
0	19241	2896	0.536348599704
0	19269	2900	0.429834950329
0	19345	2910	1.21464575565
0	19370	2914	1.261194474624
0	19422	2922	1.40902351622
0	19471	2930	1.44508568129
0	19487	2932	2.279939808604
0	19578	2948	1.482803197819
0	19602	2951	0.706055789828
0	19663	2961	0.115085112381
0	19757	2977	0.830377607029
0	19794	2983	1.46822625657
0	19822	2987	1.400313126299
0	19835	2989	0.713823477752
0	19916	3000	0.939881844717
0	19935	3002	2.562274953541
0	19945	3004	2.997456016169
0	19961	3006	0.755647031846
0	19977	3008	1.184249488351
0	19996	3010	2.56755729623
0	20006	3012	3.81331596364
0	20025	3014	1.472639963248
0	20040	3016	1.914988485184
0	20075	3022	1.131748304422
0	20181	3038	1.956959664616
0	20275	3050	1.259256576382
0	20288	3052	2.577068405862
0	20337	3060	1.068954164864
0	20374	3064	1.88670617563
0	20387	3066	2.210978763559
0	20412	3070	0.881274150612
0	20440	3074	0.839909407832
0	20486	3082	0.662069417692
0	20499	3084	1.102777705206
0	20599	3102	1.301039742717
0	20629	3106	1.256030365925
0	20652	3108	2.026060521592
0	20857	3140	1.168147413168
0	20870	3142	2.898060528197
0	20883	3144	3.980431107723
0	20899	3146	1.375767569501
0	20927	3150	1.758884143234
0	20949	3152	1.390685347917
0	20965	3154	3.243252473269
0	20978	3156	3.381328785036
0	20994	3158	1.310211494141
0	21034	3162	1.440356468013
0	21047	3164	3.02935237732
0	21060	3166	3.176877769666
0	21073	3168	1.209859664922
0	21089	3170	1.434656421803
0	21123	3176	0.653211388236
0	21157	3180	1.039961623936
0	21269	3196	1.129217871469
0	21285	3198	3.060697352208
0	21307	3200	0.268924369586
0	21430	3220	0.065254496415
0	21450	3222	0.834552643343
0	21538	3236	1.259487820603
0	21575	3242	1.138527452452
0	21588	3244	1.85308192161
0	21607	3246	0.808905985157
0	21637	3250	0.669334554381
0	21753	3270	0.140114077388
0	21844	3286	0.611312079167
0	21872	3290	1.98748894298
0	21927	3298	1.550927840583
0	21979	3306	1.013562271725
0	22103	3326	0.536082695629
0	22116	3328	1.464488437242
0	22183	3340	0.898883751967
0	22265	3354	1.983266834126
0	22281	3356	0.146608873738
0	22312	3360	0.164722822341
0	22328	3362	0.760380544595
0	22341	3364	0.103641012326
0	22357	3366	1.031146691687
0	22382	3370	1.537494704777
0	22407	3372	1.708118738862
0	22423	3374	3.359978151891
0	22535	3394	0.417624709875
0	22656	3414	0.733903635317
0	22696	3420	1.186106116703
0	22706	3422	2.364167367376
0	22719	3424	1.606309199112
0	22765	3432	1.007585707634
0	22787	3434	1.676883811637
0	22806	3436	2.599831635706
0	22816	3438	2.193019538352
0	22841	3442	1.058151616828
0	22857	3444	1.079960497219
0	22972	3462	1.361407627686
0	22988	3464	1.861261914277
0	23013	3468	1.743658969152
0	23035	3470	1.368466433947
0	23057	3472	0.333180849364
0	23091	3476	1.749427812788
0	23148	3484	0.940918335792
0	23165	3486	0.512647144047
0	23280	3506	1.82982217292
0	23296	3508	3.170994290722
0	23306	3510	5.139019000241
0	23319	3512	1.108587982457
0	23422	3526	1.400573148715
0	23447	3530	1.969348558697
0	23514	3540	0.88310883681
0	23530	3542	1.891857539683
0	23555	3546	1.895488528191
0	23604	3554	1.824395056802
0	23701	3570	1.687878726303
0	23711	3572	2.813918737292
0	23751	3578	1.050890097577
0	23811	3588	1.476084355167
0	23864	3596	0.407421808084
0	23877	3598	0.700356817547
0	23914	3604	0.409403512483
0	23960	3612	0.793403513789
0	24021	3622	0.631568540373
0	24094	3632	0.90384892425
0	24140	3638	0.199111714098
0	24152	3640	0.047832206462
0	24217	3650	1.587566462034
0	24296	3662	1.777559820981
0	24333	3668	0.850288349207
0	24409	3678	1.161327582311
0	24419	3680	3.104811142955
0	24432	3682	4.790686020372
0	24448	3684	6.142568744269
0	24467	3686	2.222921886656
0	24483	3688	3.845971694675
0	24493	3690	4.729298907527
0	24554	3700	1.710667261824
0	24582	3704	1.375675249807
0	24592	3706	3.371524512511
0	24749	3734	1.879307535914
0	24804	3742	1.38109757334
0	24823	3744	3.15155614201
0	24838	3746	3.918137289192
0	24888	3752	1.067615005555
0	24901	3754	2.850233428354
0	24935	3758	0.30284792882
0	24954	3760	1.914407960617
0	24973	3762	1.959058768219
0	24986	3764	2.84604776646
0	25107	3782	0.715300988884
0	25125	3784	0.001424844838
0	25229	3802	0.211008660502
0	25263	3808	0.73847164106
0	25279	3810	2.52939536134
0	25291	3812	3.76977507788
0	25323	3818	0.245319506595
0	25387	3828	1.117259316342
0	25475	3842	0.231269660316
0	25574	3861	0.618486215263
0	25638	3874	1.75323458143
0	25684	3880	1.566069497097
0	25697	3882	0.19338992567
0	25808	3899	1.879884704392
0	25832	3903	0.073534475656
0	25872	3908	2.92790082444
0	25888	3910	0.104228066491
0	25904	3912	0.558155120325
0	25974	3920	1.812249546682
0	25986	3922	2.435684417468
0	25997	3924	2.027476639504
0	26013	3926	1.225610821273
0	26029	3928	2.911196428449
0	26042	3930	2.322925375268
0	26058	3932	0.513727055253
0	26173	3950	0.910736868409
0	26183	3952	2.80316626215
0	26216	3957	1.320838993695
0	26413	3991	2.084202900598
1	24	2	2
1	33	4	4
1	61	8	2.608637669096
1	70	10	2.464415451716
1	98	14	1.741208611824
1	122	18	0.899365653789
1	134	20	1.879170053464
1	174	24	3.988596671459
1	186	26	4.426054872166
1	198	28	6.075746857608
1	207	30	7.869641836634
1	216	32	8.165610012557
1	225	34	8.968029206943
1	245	37	9.268931923052
1	263	39	4.554652501205
1	294	43	5.235664721102
1	313	45	6.631357097878
1	323	47	5.638125043783
1	336	49	6.199067603701
1	349	51	7.652101446955
1	361	53	3.384426397106
1	385	57	4.787909458133
1	414	62	0.753203906309
1	450	69	0.48340682505
1	506	79	0.851969482681
1	546	85	0.681872691458
1	576	89	1.75275363874
1	589	91	2.82437555574
1	616	95	4.553281445363
1	631	97	4.199367604936
1	661	101	7.52769064114
1	670	103	6.314296319773
1	704	107	8.470614206858
1	723	109	10.025093364801
1	752	113	13.233394514675
1	771	115	11.578899975577
1	793	119	14.114609031158
1	805	121	13.095564410291
1	820	123	14.122745473615
1	829	125	15.072600797485
1	841	127	12.440765410565
1	863	129	13.315312933276
1	886	133	13.728836472366
1	898	135	13.569931682365
1	907	137	15.055725502059
1	927	140	14.608531061612
1	945	142	14.872964181385
1	975	146	11.696317384643
1	984	148	8.650424691446
1	1021	152	11.525868295339
1	1033	154	13.343312595717
1	1062	158	16.108628058843
1	1074	160	17.280455928272
1	1099	164	20.682888423993
1	1112	166	20.409116638297
1	1121	168	19.69650427695
1	1130	170	19.337828933125
1	1142	172	20.946199789526
1	1162	175	18.302602902126
1	1174	177	18.896793789473
1	1207	181	16.848678316952
1	1222	183	12.496222026387
1	1246	187	11.264726904633
1	1264	189	11.21921871247
1	1291	193	13.537556661596
1	1303	195	15.497077418686
1	1331	199	18.458312681809
1	1343	201	17.983305302274
1	1364	205	19.676372217172
1	1380	207	19.387037156927
1	1408	211	22.494763541414
1	1417	213	23.574872119377
1	1438	217	19.454951541779
1	1450	219	21.372964071194
1	1471	223	24.760094782044
1	1483	225	20.909483177106
1	1508	229	21.651732768265
1	1529	231	20.190596982582
1	1558	235	20.396577404207
1	1570	237	18.121075844208
1	1597	241	11.157544010758
1	1612	243	13.036403241881
1	1639	247	16.796545447531
1	1654	249	15.299275114329
1	1672	253	18.530934522462
1	1684	255	17.858417750943
1	1709	259	17.924540044761
1	1724	261	19.549512137184
1	1751	265	21.62833435159
1	1766	267	20.419028097049
1	1794	271	16.804088955174
1	1807	273	13.807027858777
1	1834	277	15.95653881819
1	1843	279	17.395557398538
1	1870	283	17.511985115508
1	1882	285	14.364611269063
1	1907	289	16.412568775889
1	1928	291	16.111207491297
1	1957	295	20.054802987313
1	1980	297	20.482063256677
1	2004	301	19.449727526768
1	2019	303	15.398097350666
1	2047	307	17.890124666114
1	2063	309	19.348172348509
1	2087	313	22.676022034711
1	2099	315	20.049398096753
1	2123	319	23.847237635903
1	2132	321	25.818998392949
1	2162	325	28.868949355566
1	2172	327	29.279012720486
1	2198	331	31.390682755358
1	2209	333	31.810451162676
1	2234	337	30.091630834738
1	2243	339	30.37550499969
1	2270	343	33.837903920174
1	2285	345	32.811841080647
1	2306	349	35.225147192716
1	2318	351	33.432295855932
1	2342	355	31.320343475819
1	2354	357	29.642745737551
1	2385	361	30.087001572838
1	2394	363	21.006653534513
1	2415	367	24.846242293695
1	2427	369	26.26549365034
1	2452	373	28.72812149405
1	2464	375	27.543786514351
1	2492	379	28.513674027823
1	2508	381	29.524582298955
1	2536	385	27.761981926761
1	2545	387	27.50754887232
1	2580	391	26.747585922547
1	2592	393	23.420417459927
1	2625	397	20.953408155108
1	2638	399	21.381064705055
1	2673	403	23.321326154013
1	2689	405	22.012950213208
1	2715	409	25.184282641183
1	2735	411	23.319654391247
1	2761	415	27.203375703159
1	2773	417	28.418532930769
1	2810	421	29.392609409374
1	2822	423	29.35462101388
1	2840	427	31.299023265691
1	2849	429	32.864271827186
1	2877	433	31.524772931065
1	2886	435	32.943236403604
1	2910	439	34.566396587965
1	2925	441	33.879905568059
1	2957	445	35.204022118132
1	2970	447	34.755427154201
1	2995	451	36.432646601307
1	3007	453	36.849965805845
1	3028	457	39.349476835979
1	3040	459	41.044983594582
1	3066	463	44.435715084452
1	3079	465	45.821791395337
1	3110	469	48.295946290833
1	3122	471	48.387022086767
1	3141	475	39.037534143415
1	3153	477	33.73541717139
1	3174	481	35.469087727771
1	3186	483	32.21977202192
1	3223	487	35.248551501646
1	3239	489	23.147487763142
1	3264	493	26.052256151846
1	3282	495	27.259153894158
1	3309	499	22.200213160502
1	3319	501	14.876744608148
1	3338	505	18.674023894837
1	3350	507	20.319898552541
1	3379	511	24.24397158896
1	3393	513	19.071340191267
1	3415	517	20.341869122517
1	3426	519	8.020817519713
1	3455	523	4.082105571094
1	3470	525	4.952335719779
1	3514	529	6.464660463825
1	3527	531	4.429897362823
1	3552	535	8.317724540297
1	3564	537	9.192610833081
1	3585	541	12.713147007098
1	3597	543	13.671576602221
1	3615	547	15.129633994081
1	3642	549	8.256960644441
1	3667	553	5.336320818788
1	3682	555	6.944179824381
1	3710	559	6.784981207156
1	3722	561	4.151333461184
1	3743	565	6.285526631365
1	3755	567	7.579155767904
1	3776	571	6.574548386112
1	3788	573	6.759576796361
1	3809	577	7.972070458678
1	3821	579	4.623798997218
1	3848	583	4.776544991421
1	3861	585	2.765086769048
1	3902	589	1.917206448652
1	3912	591	2.436050835859
1	3948	597	0.363966236455
1	3976	601	2.748938988298
1	3992	603	3.200862404658
1	4026	607	0.354034987502
1	4043	609	0.112016221135
1	4090	618	0.277094153235
1	4134	624	0.508456723808
1	4157	628	4.090750697366
1	4184	632	0.631848538183
1	4197	634	1.919160351532
1	4225	638	3.004361228172
1	4237	640	3.304441544953
1	4258	644	3.39999923254
1	4276	646	1.779221924407
1	4301	650	5.596419116175
1	4320	652	6.312275792149
1	4346	656	7.943421633752
1	4356	658	5.784849190463
1	4377	662	1.262548456952
1	4392	664	1.72991260873
1	4420	668	4.948422292681
1	4432	670	4.046591967743
1	4457	674	1.819491514808
1	4485	678	1.642850040154
1	4504	680	1.870465757425
1	4531	684	5.400270277255
1	4540	686	5.953017828188
1	4567	690	8.075245302966
1	4577	692	8.843158690552
1	4604	696	6.008812786515
1	4619	698	4.95843574294
1	4640	702	7.502124780909
1	4652	704	7.030133085962
1	4677	708	9.466292309703
1	4696	710	6.174147154056
1	4716	714	7.591244351909
1	4732	716	7.833535600989
1	4762	720	10.393994484371
1	4777	722	8.012628492937
1	4798	726	9.437667230404
1	4816	728	10.18349685938
1	4848	732	14.042517120095
1	4860	734	15.182249011984
1	4884	738	16.725486896184
1	4899	740	15.913428040322
1	4934	744	17.316414803022
1	4948	746	18.176452181733
1	4982	750	21.864896934395
1	5001	752	22.938304220103
1	5028	756	17.976439895429
1	5041	758	18.03124521451
1	5062	762	21.181393005739
1	5077	764	22.974069012441
1	5108	768	26.027824360686
1	5118	770	25.002144761177
1	5143	774	25.660072941353
1	5158	776	26.445320359164
1	5193	780	30.001875317302
1	5217	782	31.506465736858
1	5241	786	34.706421997222
1	5253	788	33.984631772135
1	5271	792	37.799074022772
1	5283	794	35.023875873349
1	5311	798	35.101745364206
1	5323	800	36.518739294004
1	5350	804	36.738097299348
1	5365	806	33.917746723345
1	5392	810	32.648456251035
1	5401	812	34.47578753006
1	5419	816	37.240521155496
1	5431	818	38.402670027808
1	5453	822	41.587353533266
1	5475	824	43.196676344546
1	5499	828	47.097279778017
1	5508	830	44.230433644649
1	5529	834	48.174735498381
1	5541	836	49.617159152676
1	5562	840	47.524276973097
1	5571	842	44.877221525789
1	5599	846	44.297304686238
1	5608	848	45.094651515724
1	5637	852	48.698099451564
1	5648	854	49.583078685638
1	5679	858	50.388620570915
1	5688	860	50.371684296843
1	5714	864	41.822344861103
1	5727	866	42.343849927826
1	5756	870	44.762387250815
1	5768	872	41.624477872388
1	5787	876	41.557665860058
1	5799	878	40.097054604518
1	5821	882	36.553632631095
1	5833	884	32.580850770895
1	5854	888	36.537824699805
1	5863	890	34.401217472717
1	5893	894	30.138281992295
1	5905	896	32.058330523325
1	5938	900	33.060607284139
1	5953	902	23.164113856519
1	5989	906	23.259329802364
1	6003	908	22.100386538736
1	6026	912	21.97272566797
1	6038	914	23.948387740043
1	6062	918	26.855275620601
1	6072	920	26.971288232221
1	6090	924	28.212540325566
1	6099	926	29.827265212314
1	6114	928	29.041736955755
1	6124	930	30.473219192368
1	6139	932	31.210019463143
1	6151	934	32.920157504177
1	6174	937	33.133731607365
1	6189	939	33.623885596215
1	6226	943	34.497412669707
1	6239	945	17.447932002011
1	6266	949	18.843766639804
1	6275	951	20.268162526379
1	6291	953	19.597266489941
1	6303	955	19.166169195886
1	6335	959	22.658692245315
1	6351	961	22.502928814558
1	6370	965	25.919188113766
1	6385	967	26.333565328952
1	6418	971	29.480812260596
1	6428	973	31.151368025289
1	6452	977	29.547135829404
1	6467	979	31.46285628195
1	6504	983	35.393896780699
1	6520	985	32.81935467541
1	6551	989	34.639901361999
1	6566	991	35.686302284062
1	6591	995	34.822209351246
1	6606	997	30.132884819804
1	6636	1001	32.819989496982
1	6647	1003	32.737517569995
1	6677	1007	31.847407584617
1	6691	1009	32.450774949403
1	6720	1013	34.98853608903
1	6729	1015	36.379331585381
1	6756	1019	38.488371413086
1	6782	1021	38.712960173598
1	6818	1025	42.371160978797
1	6828	1027	42.660101135775
1	6852	1031	46.217393068537
1	6861	1033	46.393563713164
1	6891	1037	48.644283903859
1	6903	1039	48.739176981222
1	6937	1043	47.74583557736
1	6947	1045	47.602199473212
1	6978	1049	50.336812674906
1	6987	1051	48.064764281158
1	7019	1055	51.522740816668
1	7031	1057	49.079911603071
1	7061	1061	51.69138577134
1	7074	1063	53.04917936567
1	7101	1067	48.034702603405
1	7123	1069	48.41667516608
1	7160	1073	51.226063883996
1	7169	1075	52.366545755705
1	7196	1079	55.049736790342
1	7208	1081	47.986967182998
1	7229	1085	51.060171229429
1	7242	1087	49.01046538751
1	7268	1091	48.621193352714
1	7283	1093	50.336460088483
1	7310	1097	51.124033981922
1	7323	1099	52.599802093258
1	7345	1103	55.452025817867
1	7364	1105	51.22855525325
1	7385	1109	50.351165086137
1	7407	1111	51.305994123892
1	7428	1115	50.696474072687
1	7443	1117	51.895181004252
1	7478	1121	54.745448849756
1	7490	1123	55.91772945818
1	7514	1127	57.553384026498
1	7530	1129	59.246126727228
1	7551	1133	62.508191726999
1	7560	1135	64.003015633721
1	7587	1139	67.676670798461
1	7602	1141	64.967648680911
1	7623	1145	68.813386977146
1	7642	1147	70.386863847062
1	7660	1151	71.15048990716
1	7669	1153	61.902765264014
1	7697	1157	64.325959764656
1	7714	1159	63.270744843458
1	7736	1163	66.682027707685
1	7747	1165	61.322947622879
1	7778	1169	58.618809862894
1	7787	1171	60.454157260313
1	7811	1175	64.106664919903
1	7823	1177	60.389542281718
1	7841	1181	63.339571992409
1	7850	1183	64.219532331398
1	7884	1187	67.128074354745
1	7899	1189	67.537515746304
1	7923	1193	67.861043077121
1	7935	1195	64.497034661041
1	7968	1199	63.600923277252
1	7983	1201	63.030002470778
1	8007	1205	66.414691112757
1	8020	1207	67.934577909539
1	8044	1211	66.102512563167
1	8063	1213	56.211035678372
1	8093	1217	60.174875834103
1	8108	1219	61.641881538176
1	8129	1223	64.599942158926
1	8151	1225	66.004613000023
1	8185	1229	64.056935965467
1	8204	1231	64.069625949821
1	8238	1235	67.00761924115
1	8256	1237	65.697397565607
1	8284	1241	66.138907981656
1	8298	1243	66.342937687146
1	8324	1247	62.537913122386
1	8336	1249	64.178948005863
1	8360	1253	67.975716874408
1	8369	1255	67.775485951644
1	8387	1259	71.010044508861
1	8399	1261	70.375582595334
1	8423	1265	72.403602039286
1	8438	1267	72.854969755254
1	8459	1271	75.756673174908
1	8478	1273	77.657893471
1	8503	1277	79.871714037198
1	8518	1279	79.104104825508
1	8542	1283	82.794152086224
1	8555	1285	80.493329361162
1	8586	1289	83.863732877191
1	8595	1291	80.226720962012
1	8623	1295	83.60469594216
1	8635	1297	85.025448267994
1	8660	1301	85.392845578153
1	8673	1303	87.047288077251
1	8704	1307	90.899022512843
1	8715	1309	92.355977691953